<?xml version="1.0"?>
<VTKFile type="UnstructuredGrid" version="0.1" byte_order="LittleEndian">
	<UnstructuredGrid>
		<Piece NumberOfPoints="100" NumberOfCells="100">
			<Points>
				<DataArray Name="Position" type="Float64" NumberOfComponents="3" format="ascii">0 0 0 1 1 0 1 0 0 0 1 0 0 0.111111 0 0 0.222222 0 0 0.333333 0 0 0.444444 0 0 0.555556 0 0 0.666667 0 0 0.777778 0 0 0.888889 0 0.111111 1 0 0.222222 1 0 0.333333 1 0 0.444444 1 0 0.555556 1 0 0.666667 1 0 0.777778 1 0 0.888889 1 0 1 0.888889 0 1 0.777778 0 1 0.666667 0 1 0.555556 0 1 0.444444 0 1 0.333333 0 1 0.222222 0 1 0.111111 0 0.888889 0 0 0.777778 0 0 0.666667 0 0 0.555556 0 0 0.444444 0 0 0.333333 0 0 0.222222 0 0 0.111111 0 0 0.111111 0.111111 0 0.222222 0.111111 0 0.333333 0.111111 0 0.444444 0.111111 0 0.555556 0.111111 0 0.666667 0.111111 0 0.777778 0.111111 0 0.888889 0.111111 0 0.111111 0.222222 0 0.222222 0.222222 0 0.333333 0.222222 0 0.444444 0.222222 0 0.555556 0.222222 0 0.666667 0.222222 0 0.777778 0.222222 0 0.888889 0.222222 0 0.111111 0.333333 0 0.222222 0.333333 0 0.333333 0.333333 0 0.444444 0.333333 0 0.555556 0.333333 0 0.666667 0.333333 0 0.777778 0.333333 0 0.888889 0.333333 0 0.111111 0.444444 0 0.222222 0.444444 0 0.333333 0.444444 0 0.444444 0.444444 0 0.555556 0.444444 0 0.666667 0.444444 0 0.777778 0.444444 0 0.888889 0.444444 0 0.111111 0.555556 0 0.222222 0.555556 0 0.333333 0.555556 0 0.444444 0.555556 0 0.555556 0.555556 0 0.666667 0.555556 0 0.777778 0.555556 0 0.888889 0.555556 0 0.111111 0.666667 0 0.222222 0.666667 0 0.333333 0.666667 0 0.444444 0.666667 0 0.555556 0.666667 0 0.666667 0.666667 0 0.777778 0.666667 0 0.888889 0.666667 0 0.111111 0.777778 0 0.222222 0.777778 0 0.333333 0.777778 0 0.444444 0.777778 0 0.555556 0.777778 0 0.666667 0.777778 0 0.777778 0.777778 0 0.888889 0.777778 0 0.111111 0.888889 0 0.222222 0.888889 0 0.333333 0.888889 0 0.444444 0.888889 0 0.555556 0.888889 0 0.666667 0.888889 0 0.777778 0.888889 0 0.888889 0.888889 0 </DataArray>
			</Points>
			<PointData>
				<DataArray Name="Variable" type="Float64" format="ascii">-3.86274e-13 100 -1.96224e-12 -1.86992e-11 -9.04801e-13 1.91927e-13 1.27495e-12 0 0 0 -0 -6.81722e-11 100 100 100 100 100 100 100 100 3.50953e-12 -3.86048e-11 5.28622e-11 -5.46814e-12 0 6.23527e-12 3.74116e-12 1.01843e-11 -7.2384e-12 -7.45774e-12 -2.34425e-11 -4.1441e-12 -1.30572e-12 8.31369e-13 5.19605e-14 -3.63724e-13 76.0489 154.639 188.219 152.459 49.3918 -113.785 768.645 -641.011 79.6045 159.977 180.49 91.9046 -104.446 -399.5 1465.89 -1381.59 50.3239 96.8552 98.5349 12.7786 -145.85 -381.056 2580.32 -1465.59 -16.0116 -43.5253 -65.519 -78.5818 -42.4914 -5.43286 3961.61 -964.836 -183.093 -392.476 -513.501 -454.754 -133.115 339.294 5029.66 -217.227 -274.696 -585.424 -731.73 -548.85 67.7853 931.586 5652.37 615.631 -9451.44 -19555.1 -28717.5 -35215.5 -37424.5 -34272.3 -22357.6 -12335.7 6278.24 12878.2 19017.8 23724.2 25999.2 24877.6 21111.7 9501.98 </DataArray>
			</PointData>
			<Cells>
				<DataArray Name="connectivity" type="Int32" format="ascii">0 1 2 3 4 5 6 7 8 9 10 11 12 13 14 15 16 17 18 19 20 21 22 23 24 25 26 27 28 29 30 31 32 33 34 35 36 37 38 39 40 41 42 43 44 45 46 47 48 49 50 51 52 53 54 55 56 57 58 59 60 61 62 63 64 65 66 67 68 69 70 71 72 73 74 75 76 77 78 79 80 81 82 83 84 85 86 87 88 89 90 91 92 93 94 95 96 97 98 99 </DataArray>
				<DataArray Name="offsets" type="Int32" format="ascii">0 1 2 3 4 5 6 7 8 9 10 11 12 13 14 15 16 17 18 19 20 21 22 23 24 25 26 27 28 29 30 31 32 33 34 35 36 37 38 39 40 41 42 43 44 45 46 47 48 49 50 51 52 53 54 55 56 57 58 59 60 61 62 63 64 65 66 67 68 69 70 71 72 73 74 75 76 77 78 79 80 81 82 83 84 85 86 87 88 89 90 91 92 93 94 95 96 97 98 99 </DataArray>
				<DataArray Name="types" type="Int32" format="ascii">1 1 1 1 1 1 1 1 1 1 1 1 1 1 1 1 1 1 1 1 1 1 1 1 1 1 1 1 1 1 1 1 1 1 1 1 1 1 1 1 1 1 1 1 1 1 1 1 1 1 1 1 1 1 1 1 1 1 1 1 1 1 1 1 1 1 1 1 1 1 1 1 1 1 1 1 1 1 1 1 1 1 1 1 1 1 1 1 1 1 1 1 1 1 1 1 1 1 1 1 </DataArray>
			</Cells>
		</Piece>
	</UnstructuredGrid>
</VTKFile>
