<?xml version="1.0"?>
<VTKFile type="UnstructuredGrid" version="0.1" byte_order="LittleEndian">
	<UnstructuredGrid>
		<Piece NumberOfPoints="100" NumberOfCells="100">
			<Points>
				<DataArray Name="Position" type="Float64" NumberOfComponents="3" format="ascii">0 0 0 1 1 0 1 0 0 0 1 0 0 0.111111 0 0 0.222222 0 0 0.333333 0 0 0.444444 0 0 0.555556 0 0 0.666667 0 0 0.777778 0 0 0.888889 0 0.111111 1 0 0.222222 1 0 0.333333 1 0 0.444444 1 0 0.555556 1 0 0.666667 1 0 0.777778 1 0 0.888889 1 0 1 0.888889 0 1 0.777778 0 1 0.666667 0 1 0.555556 0 1 0.444444 0 1 0.333333 0 1 0.222222 0 1 0.111111 0 0.888889 0 0 0.777778 0 0 0.666667 0 0 0.555556 0 0 0.444444 0 0 0.333333 0 0 0.222222 0 0 0.111111 0 0 0.111111 0.111111 0 0.222222 0.111111 0 0.333333 0.111111 0 0.444444 0.111111 0 0.555556 0.111111 0 0.666667 0.111111 0 0.777778 0.111111 0 0.888889 0.111111 0 0.111111 0.222222 0 0.222222 0.222222 0 0.333333 0.222222 0 0.444444 0.222222 0 0.555556 0.222222 0 0.666667 0.222222 0 0.777778 0.222222 0 0.888889 0.222222 0 0.111111 0.333333 0 0.222222 0.333333 0 0.333333 0.333333 0 0.444444 0.333333 0 0.555556 0.333333 0 0.666667 0.333333 0 0.777778 0.333333 0 0.888889 0.333333 0 0.111111 0.444444 0 0.222222 0.444444 0 0.333333 0.444444 0 0.444444 0.444444 0 0.555556 0.444444 0 0.666667 0.444444 0 0.777778 0.444444 0 0.888889 0.444444 0 0.111111 0.555556 0 0.222222 0.555556 0 0.333333 0.555556 0 0.444444 0.555556 0 0.555556 0.555556 0 0.666667 0.555556 0 0.777778 0.555556 0 0.888889 0.555556 0 0.111111 0.666667 0 0.222222 0.666667 0 0.333333 0.666667 0 0.444444 0.666667 0 0.555556 0.666667 0 0.666667 0.666667 0 0.777778 0.666667 0 0.888889 0.666667 0 0.111111 0.777778 0 0.222222 0.777778 0 0.333333 0.777778 0 0.444444 0.777778 0 0.555556 0.777778 0 0.666667 0.777778 0 0.777778 0.777778 0 0.888889 0.777778 0 0.111111 0.888889 0 0.222222 0.888889 0 0.333333 0.888889 0 0.444444 0.888889 0 0.555556 0.888889 0 0.666667 0.888889 0 0.777778 0.888889 0 0.888889 0.888889 0 </DataArray>
			</Points>
			<PointData>
				<DataArray Name="Variable" type="Float64" format="ascii">0 100 0 0 0 0 0 0 0 0 0 0 100 100 100 100 100 100 100 100 0 0 0 0 0 0 0 0 0 0 0 0 0 0 0 0 -62.4741 -86.9597 -98.6066 -106.856 -113.67 -117.46 -112.634 -84.6167 -95.2799 -91.7723 -92.191 -97.117 -104.555 -113.598 -124.223 -132.86 -122.183 -116.126 -119.711 -128.472 -138.257 -147.91 -159.267 -174.315 -141.923 -131.84 -137.633 -149.83 -161.774 -172.224 -185.413 -208.464 -155.164 -146.967 -160.194 -178.696 -192.972 -201.63 -211.498 -236.389 -157.575 -158.579 -184.997 -212.321 -228.996 -233.433 -234.209 -253.52 -139.518 -168.461 -216.536 -254.978 -274.159 -272.208 -255.268 -249.367 -76.3651 -186.545 -260.607 -308.929 -330.843 -324.124 -284.784 -197.994 </DataArray>
			</PointData>
			<Cells>
				<DataArray Name="connectivity" type="Int32" format="ascii">0 1 2 3 4 5 6 7 8 9 10 11 12 13 14 15 16 17 18 19 20 21 22 23 24 25 26 27 28 29 30 31 32 33 34 35 36 37 38 39 40 41 42 43 44 45 46 47 48 49 50 51 52 53 54 55 56 57 58 59 60 61 62 63 64 65 66 67 68 69 70 71 72 73 74 75 76 77 78 79 80 81 82 83 84 85 86 87 88 89 90 91 92 93 94 95 96 97 98 99 </DataArray>
				<DataArray Name="offsets" type="Int32" format="ascii">0 1 2 3 4 5 6 7 8 9 10 11 12 13 14 15 16 17 18 19 20 21 22 23 24 25 26 27 28 29 30 31 32 33 34 35 36 37 38 39 40 41 42 43 44 45 46 47 48 49 50 51 52 53 54 55 56 57 58 59 60 61 62 63 64 65 66 67 68 69 70 71 72 73 74 75 76 77 78 79 80 81 82 83 84 85 86 87 88 89 90 91 92 93 94 95 96 97 98 99 </DataArray>
				<DataArray Name="types" type="Int32" format="ascii">1 1 1 1 1 1 1 1 1 1 1 1 1 1 1 1 1 1 1 1 1 1 1 1 1 1 1 1 1 1 1 1 1 1 1 1 1 1 1 1 1 1 1 1 1 1 1 1 1 1 1 1 1 1 1 1 1 1 1 1 1 1 1 1 1 1 1 1 1 1 1 1 1 1 1 1 1 1 1 1 1 1 1 1 1 1 1 1 1 1 1 1 1 1 1 1 1 1 1 1 </DataArray>
			</Cells>
		</Piece>
	</UnstructuredGrid>
</VTKFile>
