<?xml version="1.0"?>
<VTKFile type="UnstructuredGrid" version="0.1" byte_order="LittleEndian">
	<UnstructuredGrid>
		<Piece NumberOfPoints="100" NumberOfCells="100">
			<Points>
				<DataArray Name="Position" type="Float64" NumberOfComponents="3" format="ascii">0 0 0 1 1 0 1 0 0 0 1 0 0 0.111111 0 0 0.222222 0 0 0.333333 0 0 0.444444 0 0 0.555556 0 0 0.666667 0 0 0.777778 0 0 0.888889 0 0.111111 1 0 0.222222 1 0 0.333333 1 0 0.444444 1 0 0.555556 1 0 0.666667 1 0 0.777778 1 0 0.888889 1 0 1 0.888889 0 1 0.777778 0 1 0.666667 0 1 0.555556 0 1 0.444444 0 1 0.333333 0 1 0.222222 0 1 0.111111 0 0.888889 0 0 0.777778 0 0 0.666667 0 0 0.555556 0 0 0.444444 0 0 0.333333 0 0 0.222222 0 0 0.111111 0 0 0.111111 0.111111 0 0.222222 0.111111 0 0.333333 0.111111 0 0.444444 0.111111 0 0.555556 0.111111 0 0.666667 0.111111 0 0.777778 0.111111 0 0.888889 0.111111 0 0.111111 0.222222 0 0.222222 0.222222 0 0.333333 0.222222 0 0.444444 0.222222 0 0.555556 0.222222 0 0.666667 0.222222 0 0.777778 0.222222 0 0.888889 0.222222 0 0.111111 0.333333 0 0.222222 0.333333 0 0.333333 0.333333 0 0.444444 0.333333 0 0.555556 0.333333 0 0.666667 0.333333 0 0.777778 0.333333 0 0.888889 0.333333 0 0.111111 0.444444 0 0.222222 0.444444 0 0.333333 0.444444 0 0.444444 0.444444 0 0.555556 0.444444 0 0.666667 0.444444 0 0.777778 0.444444 0 0.888889 0.444444 0 0.111111 0.555556 0 0.222222 0.555556 0 0.333333 0.555556 0 0.444444 0.555556 0 0.555556 0.555556 0 0.666667 0.555556 0 0.777778 0.555556 0 0.888889 0.555556 0 0.111111 0.666667 0 0.222222 0.666667 0 0.333333 0.666667 0 0.444444 0.666667 0 0.555556 0.666667 0 0.666667 0.666667 0 0.777778 0.666667 0 0.888889 0.666667 0 0.111111 0.777778 0 0.222222 0.777778 0 0.333333 0.777778 0 0.444444 0.777778 0 0.555556 0.777778 0 0.666667 0.777778 0 0.777778 0.777778 0 0.888889 0.777778 0 0.111111 0.888889 0 0.222222 0.888889 0 0.333333 0.888889 0 0.444444 0.888889 0 0.555556 0.888889 0 0.666667 0.888889 0 0.777778 0.888889 0 0.888889 0.888889 0 </DataArray>
			</Points>
			<PointData>
				<DataArray Name="Variable" type="Float64" format="ascii">0 100 0 0 1.6658e-16 -5.55631e-14 1.2195e-13 -1.01024e-14 1.55865e-13 1.15456e-13 -2.42457e-13 0 100 100 100 100 100 100 100 100 -2.74733e-14 -5.88824e-13 -6.0037e-13 1.42011e-12 -4.11311e-13 1.63226e-12 -4.36567e-14 5.55018e-16 8.58539e-16 2.52559e-15 -5.43003e-13 -1.93966e-12 -3.00185e-13 5.87381e-13 2.88639e-15 -8.58539e-16 1.41248 2.63033 3.51969 3.98646 3.98562 3.5175 2.62774 1.41071 2.99825 5.56357 7.42736 8.40111 8.39907 7.42204 5.55719 2.99382 4.97127 9.17697 12.1957 13.7577 13.7536 12.185 9.16378 4.96179 7.6331 13.958 18.3927 20.6474 20.6399 18.3724 13.9317 7.61302 11.4824 20.6104 26.7396 29.7621 29.7492 26.7029 20.5589 11.4384 17.4965 30.2435 38.156 41.8642 41.8437 38.0939 30.1442 17.3933 27.9462 44.6956 53.7251 57.6244 57.5969 53.6333 44.5151 27.6802 49.0148 66.8544 74.3406 77.1991 77.1743 74.2446 66.5903 48.2454 </DataArray>
			</PointData>
			<Cells>
				<DataArray Name="connectivity" type="Int32" format="ascii">0 1 2 3 4 5 6 7 8 9 10 11 12 13 14 15 16 17 18 19 20 21 22 23 24 25 26 27 28 29 30 31 32 33 34 35 36 37 38 39 40 41 42 43 44 45 46 47 48 49 50 51 52 53 54 55 56 57 58 59 60 61 62 63 64 65 66 67 68 69 70 71 72 73 74 75 76 77 78 79 80 81 82 83 84 85 86 87 88 89 90 91 92 93 94 95 96 97 98 99 </DataArray>
				<DataArray Name="offsets" type="Int32" format="ascii">0 1 2 3 4 5 6 7 8 9 10 11 12 13 14 15 16 17 18 19 20 21 22 23 24 25 26 27 28 29 30 31 32 33 34 35 36 37 38 39 40 41 42 43 44 45 46 47 48 49 50 51 52 53 54 55 56 57 58 59 60 61 62 63 64 65 66 67 68 69 70 71 72 73 74 75 76 77 78 79 80 81 82 83 84 85 86 87 88 89 90 91 92 93 94 95 96 97 98 99 </DataArray>
				<DataArray Name="types" type="Int32" format="ascii">1 1 1 1 1 1 1 1 1 1 1 1 1 1 1 1 1 1 1 1 1 1 1 1 1 1 1 1 1 1 1 1 1 1 1 1 1 1 1 1 1 1 1 1 1 1 1 1 1 1 1 1 1 1 1 1 1 1 1 1 1 1 1 1 1 1 1 1 1 1 1 1 1 1 1 1 1 1 1 1 1 1 1 1 1 1 1 1 1 1 1 1 1 1 1 1 1 1 1 1 </DataArray>
			</Cells>
		</Piece>
	</UnstructuredGrid>
</VTKFile>
